WEBVTT
Kind: captions
Language: en

00:00:13.070 --> 00:00:16.730 

aliens<00:00:14.070> vs<00:00:14.310> predator<00:00:14.700> is<00:00:14.940> a<00:00:15.260> as<00:00:16.260> a<00:00:16.320> title<00:00:16.590> is

00:00:16.730 --> 00:00:16.740 
aliens vs predator is a as a title is

00:00:16.740 --> 00:00:19.700 
aliens vs predator is a as a title is
really<00:00:17.010> important<00:00:17.400> to<00:00:17.430> us<00:00:17.520> a<00:00:17.730> rebellion<00:00:18.710> we

00:00:19.700 --> 00:00:19.710 
really important to us a rebellion we

00:00:19.710 --> 00:00:22.340 
really important to us a rebellion we
did<00:00:19.860> the<00:00:20.010> original<00:00:20.460> Jaguar<00:00:21.119> version<00:00:21.540> back<00:00:22.200> in

00:00:22.340 --> 00:00:22.350 
did the original Jaguar version back in

00:00:22.350 --> 00:00:25.760 
did the original Jaguar version back in
the<00:00:22.439> 90s<00:00:22.800> and<00:00:23.250> the<00:00:23.430> the<00:00:23.970> pc<00:00:24.330> version<00:00:24.360> in<00:00:24.900> 1999

00:00:25.760 --> 00:00:25.770 
the 90s and the the pc version in 1999

00:00:25.770 --> 00:00:28.190 
the 90s and the the pc version in 1999
for<00:00:26.550> me<00:00:26.670> and<00:00:26.880> so<00:00:27.180> many<00:00:27.240> of<00:00:27.450> my<00:00:27.480> colleagues<00:00:27.779> it's

00:00:28.190 --> 00:00:28.200 
for me and so many of my colleagues it's

00:00:28.200 --> 00:00:30.979 
for me and so many of my colleagues it's
a<00:00:28.290> it's<00:00:29.189> an<00:00:29.340> obsession<00:00:29.610> you<00:00:30.029> know<00:00:30.150> it's<00:00:30.390> a<00:00:30.630> it's

00:00:30.979 --> 00:00:30.989 
a it's an obsession you know it's a it's

00:00:30.989 --> 00:00:33.680 
a it's an obsession you know it's a it's
a<00:00:31.890> geeky<00:00:32.220> obsession<00:00:32.700> on<00:00:32.820> with<00:00:33.120> aliens<00:00:33.510> and

00:00:33.680 --> 00:00:33.690 
a geeky obsession on with aliens and

00:00:33.690 --> 00:00:35.150 
a geeky obsession on with aliens and
predators<00:00:34.170> ever<00:00:34.560> since<00:00:34.710> you<00:00:34.829> know<00:00:34.950> ever<00:00:35.100> since

00:00:35.150 --> 00:00:35.160 
predators ever since you know ever since

00:00:35.160 --> 00:00:37.040 
predators ever since you know ever since
we<00:00:35.400> first<00:00:35.550> saw<00:00:35.730> the<00:00:35.790> movies<00:00:36.180> growing<00:00:36.420> up<00:00:36.720> and

00:00:37.040 --> 00:00:37.050 
we first saw the movies growing up and

00:00:37.050 --> 00:00:38.840 
we first saw the movies growing up and
the<00:00:37.649> idea<00:00:37.890> of<00:00:38.010> bringing<00:00:38.160> them<00:00:38.370> together<00:00:38.489> in<00:00:38.790> a

00:00:38.840 --> 00:00:38.850 
the idea of bringing them together in a

00:00:38.850 --> 00:00:41.240 
the idea of bringing them together in a
game<00:00:39.060> is<00:00:39.300> just<00:00:39.510> you<00:00:39.810> know<00:00:39.930> it's<00:00:40.710> heaven<00:00:41.010> really

00:00:41.240 --> 00:00:41.250 
game is just you know it's heaven really

00:00:41.250 --> 00:00:43.100 
game is just you know it's heaven really
the<00:00:41.579> the<00:00:41.610> key<00:00:42.149> thing<00:00:42.360> about<00:00:42.390> aliens<00:00:42.840> vs

00:00:43.100 --> 00:00:43.110 
the the key thing about aliens vs

00:00:43.110 --> 00:00:44.930 
the the key thing about aliens vs
predator<00:00:43.530> is<00:00:43.739> that<00:00:43.949> it's<00:00:44.129> it's<00:00:44.579> built<00:00:44.820> on

00:00:44.930 --> 00:00:44.940 
predator is that it's it's built on

00:00:44.940 --> 00:00:46.759 
predator is that it's it's built on
three<00:00:45.239> different<00:00:45.449> perspectives<00:00:46.140> that<00:00:46.410> of<00:00:46.590> the

00:00:46.759 --> 00:00:46.769 
three different perspectives that of the

00:00:46.769 --> 00:00:48.680 
three different perspectives that of the
colonial<00:00:47.219> marine<00:00:47.609> and<00:00:47.940> of<00:00:48.030> the<00:00:48.120> alien<00:00:48.510> and

00:00:48.680 --> 00:00:48.690 
colonial marine and of the alien and

00:00:48.690 --> 00:00:50.509 
colonial marine and of the alien and
that<00:00:48.780> of<00:00:48.870> the<00:00:48.989> predator<00:00:49.410> and<00:00:49.679> the<00:00:50.309> game

00:00:50.509 --> 00:00:50.519 
that of the predator and the game

00:00:50.519 --> 00:00:52.580 
that of the predator and the game
delivers<00:00:51.120> three<00:00:51.690> separate<00:00:52.079> single-player

00:00:52.580 --> 00:00:52.590 
delivers three separate single-player

00:00:52.590 --> 00:00:55.130 
delivers three separate single-player
campaigns<00:00:53.269> that's<00:00:54.269> open<00:00:54.449> to<00:00:54.690> the<00:00:54.780> player<00:00:54.960> to

00:00:55.130 --> 00:00:55.140 
campaigns that's open to the player to

00:00:55.140 --> 00:00:57.079 
campaigns that's open to the player to
choose<00:00:55.739> whichever<00:00:56.280> one<00:00:56.489> they<00:00:56.519> want<00:00:56.789> to<00:00:56.850> start

00:00:57.079 --> 00:00:57.089 
choose whichever one they want to start

00:00:57.089 --> 00:00:58.639 
choose whichever one they want to start
with<00:00:57.300> just<00:00:57.539> like<00:00:57.719> the<00:00:57.839> original<00:00:57.929> games<00:00:58.379> did

00:00:58.639 --> 00:00:58.649 
with just like the original games did

00:00:58.649 --> 00:01:00.740 
with just like the original games did
and<00:00:58.920> then<00:00:59.399> on<00:00:59.519> top<00:00:59.670> of<00:00:59.730> that<00:00:59.850> we've<00:01:00.390> got<00:01:00.600> the

00:01:00.740 --> 00:01:00.750 
and then on top of that we've got the

00:01:00.750 --> 00:01:02.209 
and then on top of that we've got the
the<00:01:01.019> multiplayer<00:01:01.469> as<00:01:01.620> well<00:01:01.769> which<00:01:01.949> obviously

00:01:02.209 --> 00:01:02.219 
the multiplayer as well which obviously

00:01:02.219 --> 00:01:03.739 
the multiplayer as well which obviously
delivers<00:01:02.670> you<00:01:02.820> where<00:01:02.999> those<00:01:03.149> three<00:01:03.449> different

00:01:03.739 --> 00:01:03.749 
delivers you where those three different

00:01:03.749 --> 00:01:05.060 
delivers you where those three different
perspectives<00:01:04.290> which<00:01:04.410> is<00:01:04.530> something<00:01:04.710> really

00:01:05.060 --> 00:01:05.070 
perspectives which is something really

00:01:05.070 --> 00:01:07.570 
perspectives which is something really
fresh<00:01:05.309> and<00:01:05.370> unique<00:01:05.670> well<00:01:06.390> the<00:01:06.480> predator<00:01:06.840> is

00:01:07.570 --> 00:01:07.580 
fresh and unique well the predator is

00:01:07.580 --> 00:01:09.830 
fresh and unique well the predator is
he's<00:01:08.580> very<00:01:08.670> tooled<00:01:09.090> up<00:01:09.240> he's<00:01:09.480> got<00:01:09.630> some

00:01:09.830 --> 00:01:09.840 
he's very tooled up he's got some

00:01:09.840 --> 00:01:12.020 
he's very tooled up he's got some
extremely<00:01:10.620> cool<00:01:10.830> exotic<00:01:11.430> weaponry<00:01:11.820> and

00:01:12.020 --> 00:01:12.030 
extremely cool exotic weaponry and

00:01:12.030 --> 00:01:15.290 
extremely cool exotic weaponry and
gadgets<00:01:12.560> he's<00:01:13.560> a<00:01:13.890> powerful<00:01:14.310> character<00:01:14.940> he's

00:01:15.290 --> 00:01:15.300 
gadgets he's a powerful character he's

00:01:15.300 --> 00:01:17.090 
gadgets he's a powerful character he's
able<00:01:15.450> to<00:01:15.600> tonight<00:01:15.810> from<00:01:16.140> a<00:01:16.200> distance<00:01:16.650> sleep

00:01:17.090 --> 00:01:17.100 
able to tonight from a distance sleep

00:01:17.100 --> 00:01:20.120 
able to tonight from a distance sleep
around<00:01:17.370> treetops<00:01:18.180> and<00:01:18.390> rooftops<00:01:18.950> he's<00:01:19.950> got

00:01:20.120 --> 00:01:20.130 
around treetops and rooftops he's got

00:01:20.130 --> 00:01:22.430 
around treetops and rooftops he's got
his<00:01:20.250> wrist<00:01:20.520> blades<00:01:20.790> for<00:01:21.030> up<00:01:21.150> close<00:01:21.180> combat<00:01:21.750> and

00:01:22.430 --> 00:01:22.440 
his wrist blades for up close combat and

00:01:22.440 --> 00:01:24.680 
his wrist blades for up close combat and
he's<00:01:22.590> got<00:01:22.800> sized<00:01:23.100> things<00:01:23.970> like<00:01:24.090> booby<00:01:24.390> traps

00:01:24.680 --> 00:01:24.690 
he's got sized things like booby traps

00:01:24.690 --> 00:01:26.510 
he's got sized things like booby traps
as<00:01:24.900> well<00:01:25.110> it<00:01:25.350> can<00:01:25.500> use<00:01:25.680> and<00:01:25.950> his<00:01:26.040> cloaking

00:01:26.510 --> 00:01:26.520 
as well it can use and his cloaking

00:01:26.520 --> 00:01:29.180 
as well it can use and his cloaking
device<00:01:26.970> for<00:01:27.390> the<00:01:27.930> stealth<00:01:28.230> the<00:01:28.500> iconic<00:01:28.920> vision

00:01:29.180 --> 00:01:29.190 
device for the stealth the iconic vision

00:01:29.190 --> 00:01:30.470 
device for the stealth the iconic vision
emerged<00:01:29.310> from<00:01:29.460> the<00:01:29.580> games<00:01:29.790> and<00:01:29.970> movies<00:01:30.330> are

00:01:30.470 --> 00:01:30.480 
emerged from the games and movies are

00:01:30.480 --> 00:01:32.420 
emerged from the games and movies are
there<00:01:30.690> no<00:01:31.290> very<00:01:31.500> present<00:01:31.950> you've<00:01:32.130> got<00:01:32.280> your

00:01:32.420 --> 00:01:32.430 
there no very present you've got your

00:01:32.430 --> 00:01:34.250 
there no very present you've got your
thermal<00:01:32.790> vision<00:01:32.970> mode<00:01:33.270> for<00:01:33.630> spotting<00:01:34.110> the

00:01:34.250 --> 00:01:34.260 
thermal vision mode for spotting the

00:01:34.260 --> 00:01:36.650 
thermal vision mode for spotting the
Marines<00:01:34.560> in<00:01:34.860> the<00:01:34.890> darkness<00:01:35.310> and<00:01:35.790> the<00:01:36.000> dense

00:01:36.650 --> 00:01:36.660 
Marines in the darkness and the dense

00:01:36.660 --> 00:01:39.260 
Marines in the darkness and the dense
jungle<00:01:36.780> and<00:01:37.470> the<00:01:37.590> alien<00:01:38.580> vision<00:01:38.880> mode<00:01:39.030> for

00:01:39.260 --> 00:01:39.270 
jungle and the alien vision mode for

00:01:39.270 --> 00:01:41.000 
jungle and the alien vision mode for
spotting<00:01:39.600> the<00:01:39.720> aliens<00:01:40.020> and<00:01:40.200> dogmas<00:01:40.650> as<00:01:40.800> well

00:01:41.000 --> 00:01:41.010 
spotting the aliens and dogmas as well

00:01:41.010 --> 00:01:43.250 
spotting the aliens and dogmas as well
oh<00:01:41.280> well<00:01:41.550> the<00:01:41.670> marina<00:01:41.970> need<00:01:42.330> you<00:01:42.840> know<00:01:42.960> he<00:01:43.080> does

00:01:43.250 --> 00:01:43.260 
oh well the marina need you know he does

00:01:43.260 --> 00:01:44.900 
oh well the marina need you know he does
seem<00:01:43.740> like<00:01:43.770> he<00:01:43.920> gets<00:01:44.160> a<00:01:44.220> bit<00:01:44.340> of<00:01:44.430> a<00:01:44.490> rough<00:01:44.670> deal

00:01:44.900 --> 00:01:44.910 
seem like he gets a bit of a rough deal

00:01:44.910 --> 00:01:46.820 
seem like he gets a bit of a rough deal
with<00:01:45.210> he's<00:01:45.360> like<00:01:45.600> intergalactic<00:01:46.410> alien

00:01:46.820 --> 00:01:46.830 
with he's like intergalactic alien

00:01:46.830 --> 00:01:49.010 
with he's like intergalactic alien
serial<00:01:47.490> killers<00:01:47.790> after<00:01:48.030> him<00:01:48.360> all<00:01:48.630> over<00:01:48.690> the

00:01:49.010 --> 00:01:49.020 
serial killers after him all over the

00:01:49.020 --> 00:01:51.140 
serial killers after him all over the
place<00:01:49.200> but<00:01:49.470> he's<00:01:49.680> actually<00:01:50.370> he's<00:01:50.910> these

00:01:51.140 --> 00:01:51.150 
place but he's actually he's these

00:01:51.150 --> 00:01:53.780 
place but he's actually he's these
armored<00:01:51.540> are<00:01:51.660> peas<00:01:51.990> he's<00:01:52.500> got<00:01:52.740> some<00:01:53.100> pretty

00:01:53.780 --> 00:01:53.790 
armored are peas he's got some pretty

00:01:53.790 --> 00:01:56.030 
armored are peas he's got some pretty
awesome<00:01:54.060> firepower<00:01:54.510> as<00:01:55.020> well<00:01:55.290> the<00:01:56.010> other

00:01:56.030 --> 00:01:56.040 
awesome firepower as well the other

00:01:56.040 --> 00:01:57.680 
awesome firepower as well the other
species<00:01:56.400> they<00:01:56.670> don't<00:01:56.820> have<00:01:57.120> the<00:01:57.330> rapid-fire

00:01:57.680 --> 00:01:57.690 
species they don't have the rapid-fire

00:01:57.690 --> 00:01:59.930 
species they don't have the rapid-fire
ranged<00:01:58.380> weaponry<00:01:58.770> like<00:01:58.980> the<00:01:59.100> pulse<00:01:59.340> rifle

00:01:59.930 --> 00:01:59.940 
ranged weaponry like the pulse rifle

00:01:59.940 --> 00:02:03.770 
ranged weaponry like the pulse rifle
that<00:02:00.260> that<00:02:01.260> iconic<00:02:01.710> weapon<00:02:02.220> that<00:02:02.430> is<00:02:03.330> actually

00:02:03.770 --> 00:02:03.780 
that that iconic weapon that is actually

00:02:03.780 --> 00:02:05.480 
that that iconic weapon that is actually
probably<00:02:04.110> a<00:02:04.320> most<00:02:04.590> effective<00:02:05.070> weapon<00:02:05.220> for

00:02:05.480 --> 00:02:05.490 
probably a most effective weapon for

00:02:05.490 --> 00:02:07.339 
probably a most effective weapon for
taking<00:02:05.760> down<00:02:05.790> alien

00:02:07.339 --> 00:02:07.349 
taking down alien

00:02:07.349 --> 00:02:09.809 
taking down alien
but<00:02:08.349> it's<00:02:08.500> up<00:02:08.590> to<00:02:08.619> the<00:02:08.800> marine<00:02:09.009> to<00:02:09.220> keep<00:02:09.700> his

00:02:09.809 --> 00:02:09.819 
but it's up to the marine to keep his

00:02:09.819 --> 00:02:11.580 
but it's up to the marine to keep his
wits<00:02:09.970> about<00:02:10.119> him<00:02:10.330> users<00:02:10.959> motion<00:02:11.319> tracker

00:02:11.580 --> 00:02:11.590 
wits about him users motion tracker

00:02:11.590 --> 00:02:14.270 
wits about him users motion tracker
spotting<00:02:12.160> things<00:02:12.370> in<00:02:12.519> the<00:02:12.640> darkness<00:02:13.030> and

00:02:14.270 --> 00:02:14.280 
spotting things in the darkness and

00:02:14.280 --> 00:02:16.589 
spotting things in the darkness and
nailing<00:02:15.280> his<00:02:15.580> target<00:02:15.970> to<00:02:16.090> the<00:02:16.180> distance

00:02:16.589 --> 00:02:16.599 
nailing his target to the distance

00:02:16.599 --> 00:02:18.089 
nailing his target to the distance
because<00:02:16.870> the<00:02:16.959> last<00:02:17.140> thing<00:02:17.260> you<00:02:17.410> need<00:02:17.560> is<00:02:17.590> in

00:02:18.089 --> 00:02:18.099 
because the last thing you need is in

00:02:18.099 --> 00:02:20.040 
because the last thing you need is in
our<00:02:18.400> face<00:02:18.670> full<00:02:18.849> of<00:02:18.879> acid<00:02:19.269> blood<00:02:19.480> of<00:02:19.780> an<00:02:19.930> alien

00:02:20.040 --> 00:02:20.050 
our face full of acid blood of an alien

00:02:20.050 --> 00:02:25.160 
our face full of acid blood of an alien
it's<00:02:20.950> not<00:02:21.190> nice

00:02:25.160 --> 00:02:25.170 

00:02:25.170 --> 00:02:27.140 

obviously<00:02:26.099> for<00:02:26.220> the<00:02:26.280> single-player<00:02:26.670> campaign

00:02:27.140 --> 00:02:27.150 
obviously for the single-player campaign

00:02:27.150 --> 00:02:29.180 
obviously for the single-player campaign
three<00:02:27.450> perspectives<00:02:27.690> are<00:02:28.200> crucial<00:02:28.740> there<00:02:28.950> and

00:02:29.180 --> 00:02:29.190 
three perspectives are crucial there and

00:02:29.190 --> 00:02:30.680 
three perspectives are crucial there and
you<00:02:29.489> can<00:02:29.610> safely<00:02:29.910> assume<00:02:30.060> that<00:02:30.239> the<00:02:30.480> three

00:02:30.680 --> 00:02:30.690 
you can safely assume that the three

00:02:30.690 --> 00:02:33.440 
you can safely assume that the three
perspectives<00:02:30.980> are<00:02:31.980> key<00:02:32.550> and<00:02:32.580> multiplayer<00:02:33.209> as

00:02:33.440 --> 00:02:33.450 
perspectives are key and multiplayer as

00:02:33.450 --> 00:02:36.890 
perspectives are key and multiplayer as
well<00:02:33.660> and<00:02:35.060> everybody<00:02:36.060> has<00:02:36.239> their<00:02:36.420> favorite

00:02:36.890 --> 00:02:36.900 
well and everybody has their favorite

00:02:36.900 --> 00:02:38.900 
well and everybody has their favorite
their<00:02:37.590> favorite<00:02:37.950> species<00:02:38.160> and<00:02:38.580> within<00:02:38.730> the

00:02:38.900 --> 00:02:38.910 
their favorite species and within the

00:02:38.910 --> 00:02:42.440 
their favorite species and within the
team<00:02:39.120> already<00:02:40.069> testing<00:02:41.069> multiplayer<00:02:41.580> people

00:02:42.440 --> 00:02:42.450 
team already testing multiplayer people

00:02:42.450 --> 00:02:44.270 
team already testing multiplayer people
get<00:02:42.569> pretty<00:02:42.780> specific<00:02:42.989> about<00:02:43.410> which<00:02:44.069> one

00:02:44.270 --> 00:02:44.280 
get pretty specific about which one

00:02:44.280 --> 00:02:45.470 
get pretty specific about which one
their<00:02:44.430> favorite<00:02:44.760> is<00:02:44.910> and<00:02:45.120> there's<00:02:45.239> no<00:02:45.360> better

00:02:45.470 --> 00:02:45.480 
their favorite is and there's no better

00:02:45.480 --> 00:02:47.059 
their favorite is and there's no better
way<00:02:45.630> to<00:02:45.750> settle<00:02:46.140> those<00:02:46.319> kind<00:02:46.530> of<00:02:46.590> arguments

00:02:47.059 --> 00:02:47.069 
way to settle those kind of arguments

00:02:47.069 --> 00:02:49.100 
way to settle those kind of arguments
than<00:02:47.220> in<00:02:47.400> a<00:02:47.430> multiplayer<00:02:47.940> deathmatch<00:02:48.600> no<00:02:49.080> I

00:02:49.100 --> 00:02:49.110 
than in a multiplayer deathmatch no I

00:02:49.110 --> 00:02:50.780 
than in a multiplayer deathmatch no I
guess<00:02:49.350> one<00:02:49.500> of<00:02:49.590> my<00:02:49.709> favorite<00:02:50.069> things<00:02:50.310> about<00:02:50.430> it

00:02:50.780 --> 00:02:50.790 
guess one of my favorite things about it

00:02:50.790 --> 00:02:52.460 
guess one of my favorite things about it
is<00:02:50.910> the<00:02:51.090> fact<00:02:51.300> that<00:02:51.360> we've<00:02:52.019> really<00:02:52.260> told

00:02:52.460 --> 00:02:52.470 
is the fact that we've really told

00:02:52.470 --> 00:02:54.110 
is the fact that we've really told
nailed<00:02:52.830> the<00:02:52.890> sense<00:02:53.130> the<00:02:53.310> aliens<00:02:53.760> there<00:02:54.000> are

00:02:54.110 --> 00:02:54.120 
nailed the sense the aliens there are

00:02:54.120 --> 00:02:56.059 
nailed the sense the aliens there are
really<00:02:54.420> intelligent<00:02:54.750> and<00:02:55.260> formidable<00:02:55.620> foe

00:02:56.059 --> 00:02:56.069 
really intelligent and formidable foe

00:02:56.069 --> 00:02:57.620 
really intelligent and formidable foe
you<00:02:56.280> can't<00:02:56.610> predict<00:02:56.940> what<00:02:57.120> they're<00:02:57.300> doing

00:02:57.620 --> 00:02:57.630 
you can't predict what they're doing

00:02:57.630 --> 00:02:59.300 
you can't predict what they're doing
they're<00:02:57.870> hiding<00:02:58.290> in<00:02:58.380> the<00:02:58.470> dark<00:02:58.709> they're<00:02:58.980> using

00:02:59.300 --> 00:02:59.310 
they're hiding in the dark they're using

00:02:59.310 --> 00:03:00.830 
they're hiding in the dark they're using
the<00:02:59.400> vents<00:02:59.670> to<00:02:59.730> get<00:02:59.940> around<00:03:00.150> and<00:03:00.390> hunt<00:03:00.569> you<00:03:00.660> in

00:03:00.830 --> 00:03:00.840 
the vents to get around and hunt you in

00:03:00.840 --> 00:03:02.990 
the vents to get around and hunt you in
the<00:03:00.930> darkness<00:03:01.260> and<00:03:01.620> at<00:03:01.709> the<00:03:01.769> same<00:03:01.920> time<00:03:02.000> no

00:03:02.990 --> 00:03:03.000 
the darkness and at the same time no

00:03:03.000 --> 00:03:05.300 
the darkness and at the same time no
one's<00:03:03.209> there<00:03:03.530> you<00:03:04.530> know<00:03:04.709> you<00:03:04.769> have<00:03:05.010> to<00:03:05.130> deal

00:03:05.300 --> 00:03:05.310 
one's there you know you have to deal

00:03:05.310 --> 00:03:06.530 
one's there you know you have to deal
with<00:03:05.489> it<00:03:05.640> and<00:03:05.760> you're<00:03:05.850> having<00:03:05.970> to<00:03:06.120> like<00:03:06.390> you

00:03:06.530 --> 00:03:06.540 
with it and you're having to like you

00:03:06.540 --> 00:03:08.360 
with it and you're having to like you
know<00:03:06.569> venture<00:03:07.080> into<00:03:07.350> the<00:03:07.530> darkness<00:03:07.830> to<00:03:08.130> get

00:03:08.360 --> 00:03:08.370 
know venture into the darkness to get

00:03:08.370 --> 00:03:10.430 
know venture into the darkness to get
closer<00:03:08.640> to<00:03:08.790> take<00:03:09.090> it<00:03:09.239> out<00:03:09.420> which<00:03:10.170> is<00:03:10.200> exactly

00:03:10.430 --> 00:03:10.440 
closer to take it out which is exactly

00:03:10.440 --> 00:03:12.110 
closer to take it out which is exactly
what<00:03:10.739> you<00:03:10.860> don't<00:03:11.040> want<00:03:11.160> to<00:03:11.400> do<00:03:11.549> it's<00:03:11.730> that<00:03:11.880> kind

00:03:12.110 --> 00:03:12.120 
what you don't want to do it's that kind

00:03:12.120 --> 00:03:14.360 
what you don't want to do it's that kind
of<00:03:12.209> that<00:03:12.480> sense<00:03:12.750> of<00:03:12.870> like<00:03:13.110> fighting<00:03:14.069> against

00:03:14.360 --> 00:03:14.370 
of that sense of like fighting against

00:03:14.370 --> 00:03:16.180 
of that sense of like fighting against
your<00:03:14.489> fear<00:03:14.760> to<00:03:15.000> take<00:03:15.209> it<00:03:15.360> out<00:03:15.480> and<00:03:15.510> then

00:03:16.180 --> 00:03:16.190 
your fear to take it out and then

00:03:16.190 --> 00:03:18.830 
your fear to take it out and then
playing<00:03:17.190> it<00:03:17.310> again<00:03:17.400> the<00:03:18.299> alien<00:03:18.600> doesn't

00:03:18.830 --> 00:03:18.840 
playing it again the alien doesn't

00:03:18.840 --> 00:03:21.410 
playing it again the alien doesn't
behave<00:03:19.049> exactly<00:03:19.380> the<00:03:19.709> same<00:03:19.950> way<00:03:20.190> it<00:03:20.970> keeps<00:03:21.180> me

00:03:21.410 --> 00:03:21.420 
behave exactly the same way it keeps me

00:03:21.420 --> 00:03:22.910 
behave exactly the same way it keeps me
guessing<00:03:21.569> even<00:03:22.049> though<00:03:22.200> you<00:03:22.260> know<00:03:22.500> I<00:03:22.530> know<00:03:22.769> how

00:03:22.910 --> 00:03:22.920 
guessing even though you know I know how

00:03:22.920 --> 00:03:24.380 
guessing even though you know I know how
the<00:03:22.980> game<00:03:23.069> is<00:03:23.340> set<00:03:23.519> up<00:03:23.700> you<00:03:23.880> know<00:03:24.030> I<00:03:24.060> know<00:03:24.150> how

00:03:24.380 --> 00:03:24.390 
the game is set up you know I know how

00:03:24.390 --> 00:03:26.420 
the game is set up you know I know how
it's<00:03:24.540> supposed<00:03:24.750> to<00:03:24.840> play<00:03:25.080> and<00:03:25.440> yet<00:03:25.950> the<00:03:26.100> aliens

00:03:26.420 --> 00:03:26.430 
it's supposed to play and yet the aliens

00:03:26.430 --> 00:03:28.580 
it's supposed to play and yet the aliens
still<00:03:26.700> scare<00:03:27.090> me<00:03:27.239> they<00:03:27.450> still<00:03:27.780> you<00:03:28.019> know<00:03:28.140> keep

00:03:28.580 --> 00:03:28.590 
still scare me they still you know keep

00:03:28.590 --> 00:03:30.740 
still scare me they still you know keep
me<00:03:28.680> on<00:03:28.769> my<00:03:28.799> toes<00:03:29.100> at<00:03:29.489> now<00:03:29.730> get<00:03:30.150> on<00:03:30.239> that's<00:03:30.660> a

00:03:30.740 --> 00:03:30.750 
me on my toes at now get on that's a

00:03:30.750 --> 00:03:32.660 
me on my toes at now get on that's a
threat<00:03:30.959> I<00:03:31.200> look<00:03:31.440> out<00:03:31.560> for<00:03:31.739> aliens<00:03:31.829> vs<00:03:32.280> predator

00:03:32.660 --> 00:03:32.670 
threat I look out for aliens vs predator

00:03:32.670 --> 00:03:36.650 
threat I look out for aliens vs predator
coming<00:03:33.120> early<00:03:33.799> 2010<00:03:34.799> on<00:03:35.400> xbox<00:03:36.150> 360

00:03:36.650 --> 00:03:36.660 
coming early 2010 on xbox 360

00:03:36.660 --> 00:03:46.020 
coming early 2010 on xbox 360
playstation<00:03:36.840> 3<00:03:37.410> and<00:03:37.530> pc

00:03:46.020 --> 00:03:46.030 

00:03:46.030 --> 00:03:48.090 

you

