WEBVTT
Kind: captions
Language: en

00:00:01.260 --> 00:00:08.320
 Yes everyone is the port This time we introduce the introductory video for the motif of Jaguar version Fran 

00:00:06.180 --> 00:00:09.550
 I will take it 

00:00:08.320 --> 00:00:14.050
 Well then 

00:00:09.550 --> 00:00:16.219
 I think this before mentioned was the person who gave me a look at the weapon Gacha video can be seen, but its time ship 

00:00:14.050 --> 00:00:19.699
 Of course the character does not stand 

00:00:16.219 --> 00:00:23.610
 When I said what I had, I exchanged that 

00:00:19.699 --> 00:00:27.850
 The memorial sword feels good and has about three 

00:00:23.610 --> 00:00:32.410
 And weapon equivalent want used by the originally franc Well the fact that Na or Let bought pants 

00:00:27.850 --> 00:00:38.350
 That Nde that Tteyuu I want to of course Otose to that Fran was delicious rather than a 

00:00:32.410 --> 00:00:41.340
 I want all the time since the standing picture of the plan appears on the official site of the tea pot, and that one is absolutely it 

00:00:38.350 --> 00:00:44.850
 At this time I exchanged at the time girl 

00:00:41.340 --> 00:00:48.270
 I will introduce leisure time trade is 136 

00:00:44.850 --> 00:00:52.829
 6 whether to have a still attribute weapons does is it ne water attribute 

00:00:48.270 --> 00:00:54.340
 I think it's a glaze, but in attribute possession it is a very dark extreme left floor 

00:00:52.829 --> 00:00:59.440
 But that 

00:00:54.340 --> 00:01:01.170
 It 's good when it's swaying marko like performance side but it's good but so much there 

00:00:59.440 --> 00:01:06.390
 Is not important 

00:01:01.170 --> 00:01:10.140
 It's an auto skill , but it 's quite common to say that it's in the franc 

00:01:06.390 --> 00:01:12.290
 They discuss Well sp, Inc. 10% were Mashi one is 

00:01:10.140 --> 00:01:16.590
 This is 

00:01:12.290 --> 00:01:21.060
 It says that you can gain considerable advantage when using the heel 

00:01:16.590 --> 00:01:24.420
 It is attention that it is decent 59 consumption 0 

00:01:21.060 --> 00:01:31.319
 That's the real thing from developing sp 20 after that 

00:01:24.420 --> 00:01:35.220
 It was str 34 consumption, but consumption is 52 when there is -10% of goods there 

00:01:31.319 --> 00:01:39.750
 Since the sp recover 20, the real consumption 27 

00:01:35.220 --> 00:01:40.390
 It will be quite broken performance that healed at 27 

00:01:39.750 --> 00:01:44.620
 is 

00:01:40.390 --> 00:01:48.090
 Should it be noted is that the auto-spelling I feel it 's after that weapon skill should be skill 

00:01:44.620 --> 00:01:52.939
 I'm showing it but it's not so strong 

00:01:48.090 --> 00:01:52.939
 Then I will try to show you my weapon skills 

00:01:54.510 --> 00:02:04.740
 Why is it that a flower product is a spin product when there are two francs with the chief of the flower motif 

00:02:00.150 --> 00:02:08.270
 It's Rutteyuu I become quite funny it can be much battered heels 

00:02:04.740 --> 00:02:08.270
 Then I will use the weapon immediately 

00:02:08.600 --> 00:02:14.620
 Something in like this 

00:02:10.690 --> 00:02:16.819
 Suteppi market like a something in you I say cross 

00:02:14.620 --> 00:02:21.400
 It is windy but 

00:02:16.819 --> 00:02:24.870
 Even if the file is not expensive in the first place, it looks in the front range 

00:02:21.400 --> 00:02:29.600
 But this I think I once Is there version also Toka behind 

00:02:24.870 --> 00:02:33.700
 I feel that the castle gate is hit properly like this I think that there is a judgment 

00:02:29.600 --> 00:02:33.700
 How much is it if it is My 5 

00:02:34.280 --> 00:02:39.200
 It is 5 sheets 6 times 

00:02:36.569 --> 00:02:40.490
 It is not such 

00:02:39.200 --> 00:02:44.900
 Of air 

00:02:40.490 --> 00:02:46.750
 It is such a middle boss when saying something is good 

00:02:44.900 --> 00:02:52.150
 I can confirm Tan is confirmed 

00:02:46.750 --> 00:02:56.349
 It is quite strong that movement is stopped 

00:02:52.150 --> 00:02:59.080
 That's right it's good to use it in a supportive manner 

00:02:56.349 --> 00:03:00.830
 This is absolutely not for public use 

00:02:59.080 --> 00:03:02.840
 It is not good 

00:03:00.830 --> 00:03:05.310
 There is no Yabe 

00:03:02.840 --> 00:03:08.960
 While stopping and supporting the movement 

00:03:05.310 --> 00:03:12.180
 After all it is a walk , but the franc is sp pipe 

00:03:08.960 --> 00:03:14.500
 This can be nuclear power plant in 27 provinces and municipalities 

00:03:12.180 --> 00:03:15.800
 It is this early morning 

00:03:14.500 --> 00:03:19.300
 It is feeling 

00:03:15.800 --> 00:03:25.860
 There is that Mabuchi Teramatsu following year and it is the rose colors app 

00:03:19.300 --> 00:03:25.860
 Thank you for watching 8 videos this time ending in this area with a feeling of recovery 

