WEBVTT
Kind: captions
Language: en

00:00:00.030 --> 00:00:01.880 

hello<00:00:00.599> everyone<00:00:01.050> welcome<00:00:01.290> back<00:00:01.620> to<00:00:01.770> let's

00:00:01.880 --> 00:00:01.890 
hello everyone welcome back to let's

00:00:01.890 --> 00:00:04.340 
hello everyone welcome back to let's
play<00:00:02.040> playstation<00:00:02.429> doom<00:00:03.090> i'm<00:00:03.629> ultraman<00:00:04.200> -

00:00:04.340 --> 00:00:04.350 
play playstation doom i'm ultraman -

00:00:04.350 --> 00:00:07.820 
play playstation doom i'm ultraman -
wait<00:00:04.500> this<00:00:04.830> is<00:00:05.040> level<00:00:05.370> 16<00:00:05.850> hill<00:00:06.509> gate<00:00:06.779> this<00:00:07.649> is

00:00:07.820 --> 00:00:07.830 
wait this is level 16 hill gate this is

00:00:07.830 --> 00:00:09.860 
wait this is level 16 hill gate this is
a<00:00:07.859> PlayStation<00:00:08.760> exclusive<00:00:09.330> map<00:00:09.540> I<00:00:09.719> don't

00:00:09.860 --> 00:00:09.870 
a PlayStation exclusive map I don't

00:00:09.870 --> 00:00:11.780 
a PlayStation exclusive map I don't
think<00:00:10.080> it's<00:00:10.200> in<00:00:10.349> any<00:00:10.469> other<00:00:10.710> version<00:00:10.950> if<00:00:11.280> it<00:00:11.670> is

00:00:11.780 --> 00:00:11.790 
think it's in any other version if it is

00:00:11.790 --> 00:00:16.760 
think it's in any other version if it is
it's<00:00:12.030> in<00:00:12.150> the<00:00:12.179> Atari<00:00:12.540> Jaguar<00:00:12.780> version<00:00:14.540> but<00:00:15.770> but

00:00:16.760 --> 00:00:16.770 
it's in the Atari Jaguar version but but

00:00:16.770 --> 00:00:19.189 
it's in the Atari Jaguar version but but
I've<00:00:17.520> already<00:00:17.640> speed<00:00:18.029> ran<00:00:18.240> this<00:00:18.480> if<00:00:18.960> you're

00:00:19.189 --> 00:00:19.199 
I've already speed ran this if you're

00:00:19.199 --> 00:00:21.080 
I've already speed ran this if you're
subscriber<00:00:19.680> you've<00:00:20.160> probably<00:00:20.430> already<00:00:20.760> seen

00:00:21.080 --> 00:00:21.090 
subscriber you've probably already seen

00:00:21.090 --> 00:00:22.580 
subscriber you've probably already seen
it<00:00:21.240> if<00:00:21.420> not<00:00:21.869> you<00:00:22.050> should<00:00:22.109> probably<00:00:22.350> subscribe

00:00:22.580 --> 00:00:22.590 
it if not you should probably subscribe

00:00:22.590 --> 00:00:25.960 
it if not you should probably subscribe
and<00:00:23.220> go<00:00:23.460> check<00:00:23.640> it<00:00:23.789> out<00:00:23.910> it's<00:00:24.539> in<00:00:24.689> my<00:00:24.810> videos<00:00:25.140> so

00:00:25.960 --> 00:00:25.970 
and go check it out it's in my videos so

00:00:25.970 --> 00:00:28.460 
and go check it out it's in my videos so
first<00:00:26.970> things<00:00:27.180> first<00:00:27.240> drop<00:00:27.869> down<00:00:27.900> grab<00:00:28.380> the

00:00:28.460 --> 00:00:28.470 
first things first drop down grab the

00:00:28.470 --> 00:00:32.540 
first things first drop down grab the
plasma<00:00:28.920> rifle<00:00:29.250> so<00:00:29.519> we'll<00:00:29.699> grab<00:00:30.240> that<00:00:31.340> you<00:00:32.340> see

00:00:32.540 --> 00:00:32.550 
plasma rifle so we'll grab that you see

00:00:32.550 --> 00:00:34.880 
plasma rifle so we'll grab that you see
that<00:00:32.730> wall<00:00:32.940> right<00:00:33.180> there<00:00:33.480> and<00:00:33.719> now<00:00:34.170> wall<00:00:34.440> right

00:00:34.880 --> 00:00:34.890 
that wall right there and now wall right

00:00:34.890 --> 00:00:35.360 
that wall right there and now wall right
there

00:00:35.360 --> 00:00:35.370 
there

00:00:35.370 --> 00:00:40.030 
there
that<00:00:36.059> door<00:00:36.360> will<00:00:36.630> open<00:00:36.660> when<00:00:37.170> you<00:00:37.290> get<00:00:37.469> near<00:00:37.739> it

00:00:40.030 --> 00:00:40.040 

00:00:40.040 --> 00:00:42.170 

see<00:00:41.040> you<00:00:41.190> get<00:00:41.340> trapped<00:00:41.610> in<00:00:41.850> here

00:00:42.170 --> 00:00:42.180 
see you get trapped in here

00:00:42.180 --> 00:00:45.560 
see you get trapped in here
you<00:00:42.480> can't<00:00:42.750> leave<00:00:43.579> so<00:00:44.579> the<00:00:45.030> only<00:00:45.180> thing<00:00:45.450> you

00:00:45.560 --> 00:00:45.570 
you can't leave so the only thing you

00:00:45.570 --> 00:00:48.020 
you can't leave so the only thing you
can<00:00:45.750> do<00:00:45.930> just<00:00:46.620> go<00:00:46.800> forward<00:00:47.280> open<00:00:47.670> the<00:00:47.850> door

00:00:48.020 --> 00:00:48.030 
can do just go forward open the door

00:00:48.030 --> 00:00:50.979 
can do just go forward open the door
come<00:00:49.020> around<00:00:49.200> here<00:00:49.530> and<00:00:49.980> press<00:00:50.430> that<00:00:50.640> switch

00:00:50.979 --> 00:00:50.989 
come around here and press that switch

00:00:50.989 --> 00:00:54.110 
come around here and press that switch
fire<00:00:51.989> a<00:00:52.020> couple<00:00:52.350> of<00:00:52.590> plasma<00:00:53.070> shots<00:00:53.309> just<00:00:53.670> to

00:00:54.110 --> 00:00:54.120 
fire a couple of plasma shots just to

00:00:54.120 --> 00:00:56.209 
fire a couple of plasma shots just to
wake<00:00:54.360> up<00:00:54.690> those<00:00:55.020> imps<00:00:55.440> back<00:00:55.649> there<00:00:55.890> so<00:00:56.070> they'll

00:00:56.209 --> 00:00:56.219 
wake up those imps back there so they'll

00:00:56.219 --> 00:00:59.209 
wake up those imps back there so they'll
blow<00:00:56.399> their<00:00:56.610> own<00:00:56.730> themselves<00:00:57.000> up<00:00:57.570> and<00:00:58.289> there's

00:00:59.209 --> 00:00:59.219 
blow their own themselves up and there's

00:00:59.219 --> 00:01:00.709 
blow their own themselves up and there's
some<00:00:59.399> barrels<00:00:59.609> up<00:00:59.910> there<00:01:00.120> so<00:01:00.390> eventually

00:01:00.709 --> 00:01:00.719 
some barrels up there so eventually

00:01:00.719 --> 00:01:06.130 
some barrels up there so eventually
those<00:01:01.309> imps<00:01:02.309> will<00:01:02.460> blow<00:01:02.640> themselves<00:01:02.850> up<00:01:03.210> too

00:01:06.130 --> 00:01:06.140 

00:01:06.140 --> 00:01:08.990 

if<00:01:07.140> time<00:01:07.409> you<00:01:07.740> can't<00:01:08.040> use<00:01:08.250> the<00:01:08.369> plasma<00:01:08.520> rifle

00:01:08.990 --> 00:01:09.000 
if time you can't use the plasma rifle

00:01:09.000 --> 00:01:11.590 
if time you can't use the plasma rifle
go<00:01:09.180> ahead<00:01:09.360> and<00:01:09.450> give<00:01:09.570> them<00:01:09.720> a<00:01:09.900> helping<00:01:10.740> hand<00:01:10.979> of

00:01:11.590 --> 00:01:11.600 
go ahead and give them a helping hand of

00:01:11.600 --> 00:01:16.090 
go ahead and give them a helping hand of
explosive

00:01:16.090 --> 00:01:16.100 

00:01:16.100 --> 00:01:21.300 

like<00:01:16.730> that

00:01:21.300 --> 00:01:21.310 

00:01:21.310 --> 00:01:22.840 

come<00:01:22.310> back<00:01:22.430> here

00:01:22.840 --> 00:01:22.850 
come back here

00:01:22.850 --> 00:01:26.410 
come back here
you'll<00:01:22.970> want<00:01:23.270> that<00:01:23.479> pack<00:01:24.290> of<00:01:24.500> cells<00:01:24.970> and<00:01:25.970> if

00:01:26.410 --> 00:01:26.420 
you'll want that pack of cells and if

00:01:26.420 --> 00:01:28.270 
you'll want that pack of cells and if
you<00:01:26.600> get<00:01:26.780> low<00:01:26.960> on<00:01:26.990> health<00:01:27.320> you<00:01:27.650> can't<00:01:27.920> use<00:01:28.100> the

00:01:28.270 --> 00:01:28.280 
you get low on health you can't use the

00:01:28.280 --> 00:01:31.149 
you get low on health you can't use the
berserk<00:01:28.700> in<00:01:28.970> the<00:01:29.090> middle<00:01:29.890> so<00:01:30.890> let's<00:01:31.040> switch

00:01:31.149 --> 00:01:31.159 
berserk in the middle so let's switch

00:01:31.159 --> 00:01:35.889 
berserk in the middle so let's switch
back<00:01:31.280> to<00:01:31.549> the<00:01:31.729> plasma<00:01:32.210> rifle<00:01:32.540> here<00:01:34.780> there<00:01:35.780> are

00:01:35.889 --> 00:01:35.899 
back to the plasma rifle here there are

00:01:35.899 --> 00:01:38.680 
back to the plasma rifle here there are
two<00:01:36.110> Barons<00:01:36.700> over<00:01:37.700> here<00:01:37.940> is<00:01:38.060> the<00:01:38.210> switch<00:01:38.450> to

00:01:38.680 --> 00:01:38.690 
two Barons over here is the switch to

00:01:38.690 --> 00:01:45.609 
two Barons over here is the switch to
the<00:01:38.869> exit<00:01:43.060> which<00:01:44.060> is<00:01:44.479> right<00:01:44.750> there<00:01:44.780> by<00:01:45.350> the<00:01:45.409> way

00:01:45.609 --> 00:01:45.619 
the exit which is right there by the way

00:01:45.619 --> 00:01:48.100 
the exit which is right there by the way
but<00:01:45.830> obviously<00:01:46.039> we're<00:01:46.640> going<00:01:46.820> oh<00:01:47.000> wow

00:01:48.100 --> 00:01:48.110 
but obviously we're going oh wow

00:01:48.110 --> 00:01:54.359 
but obviously we're going oh wow
beautiful<00:01:48.979> that<00:01:49.250> Cacodemons<00:01:49.880> is<00:01:50.240> screwed

00:01:54.359 --> 00:01:54.369 

00:01:54.369 --> 00:01:57.790 

so<00:01:55.369> anyway<00:01:55.990> eventually<00:01:56.990> you<00:01:57.110> can<00:01:57.350> stand<00:01:57.619> in

00:01:57.790 --> 00:01:57.800 
so anyway eventually you can stand in

00:01:57.800 --> 00:02:00.190 
so anyway eventually you can stand in
justice<00:01:58.159> right<00:01:58.399> here<00:01:58.670> you<00:01:59.659> can<00:01:59.780> use<00:01:59.960> the

00:02:00.190 --> 00:02:00.200 
justice right here you can use the

00:02:00.200 --> 00:02:04.980 
justice right here you can use the
plasma<00:02:00.500> rifle<00:02:01.069> to<00:02:01.250> finish<00:02:01.700> off<00:02:01.909> the<00:02:02.539> enemies

00:02:04.980 --> 00:02:04.990 

00:02:04.990 --> 00:02:07.300 

they<00:02:05.990> should<00:02:06.229> have<00:02:06.350> killed<00:02:06.649> him<00:02:06.860> by<00:02:07.039> now

00:02:07.300 --> 00:02:07.310 
they should have killed him by now

00:02:07.310 --> 00:02:16.949 
they should have killed him by now
maybe<00:02:07.670> they<00:02:08.300> can't<00:02:08.600> reach<00:02:08.840> him<00:02:09.140> to<00:02:09.950> damage<00:02:10.340> him

00:02:16.949 --> 00:02:16.959 

00:02:16.959 --> 00:02:19.059 

anyways<00:02:17.959> when<00:02:18.170> this<00:02:18.290> opens<00:02:18.500> up<00:02:18.860> you<00:02:19.040> can

00:02:19.059 --> 00:02:19.069 
anyways when this opens up you can

00:02:19.069 --> 00:02:21.190 
anyways when this opens up you can
backtrack<00:02:19.549> in<00:02:20.090> here<00:02:20.360> and<00:02:20.569> pick<00:02:20.750> up<00:02:20.959> some

00:02:21.190 --> 00:02:21.200 
backtrack in here and pick up some

00:02:21.200 --> 00:02:24.850 
backtrack in here and pick up some
much-needed<00:02:21.410> ammo<00:02:23.380> also<00:02:24.380> the<00:02:24.560> rocket

00:02:24.850 --> 00:02:24.860 
much-needed ammo also the rocket

00:02:24.860 --> 00:02:28.780 
much-needed ammo also the rocket
launcher<00:02:25.250> which<00:02:25.489> is<00:02:25.760> very<00:02:26.540> very<00:02:26.780> useful<00:02:27.790> but

00:02:28.780 --> 00:02:28.790 
launcher which is very very useful but

00:02:28.790 --> 00:02:30.340 
launcher which is very very useful but
I'm<00:02:28.940> coming<00:02:29.209> back<00:02:29.329> here<00:02:29.570> to<00:02:29.660> grab<00:02:29.870> this<00:02:30.079> soul

00:02:30.340 --> 00:02:30.350 
I'm coming back here to grab this soul

00:02:30.350 --> 00:02:47.860 
I'm coming back here to grab this soul
sphere<00:02:30.620> up<00:02:30.769> here<00:02:36.400> really<00:02:37.400> guys

00:02:47.860 --> 00:02:47.870 

00:02:47.870 --> 00:02:53.030 

worthless<00:02:49.909> and<00:02:50.909> that's<00:02:51.060> the<00:02:51.269> lap<00:02:51.569> oh<00:02:52.040> that's

00:02:53.030 --> 00:02:53.040 
worthless and that's the lap oh that's

00:02:53.040 --> 00:02:57.080 
worthless and that's the lap oh that's
the<00:02:53.129> whole<00:02:53.250> man<00:02:55.640> what<00:02:56.640> do<00:02:56.700> I<00:02:56.730> want<00:02:56.849> me<00:02:56.909> to<00:02:56.970> say

00:02:57.080 --> 00:02:57.090 
the whole man what do I want me to say

00:02:57.090 --> 00:02:59.990 
the whole man what do I want me to say
it's<00:02:57.269> short<00:02:57.569> simple<00:02:57.989> to<00:02:58.409> the<00:02:58.440> point<00:02:58.590> is<00:02:59.069> a<00:02:59.099> big

00:02:59.990 --> 00:03:00.000 
it's short simple to the point is a big

00:03:00.000 --> 00:03:02.479 
it's short simple to the point is a big
load<00:03:00.299> of<00:03:00.420> fun<00:03:00.599> I<00:03:00.870> highly<00:03:01.860> recommend<00:03:02.310> checking

00:03:02.479 --> 00:03:02.489 
load of fun I highly recommend checking

00:03:02.489 --> 00:03:06.589 
load of fun I highly recommend checking
this<00:03:02.670> map<00:03:02.879> out<00:03:03.090> if<00:03:03.239> you<00:03:03.360> like<00:03:03.599> just<00:03:04.340> fast<00:03:05.599> you

00:03:06.589 --> 00:03:06.599 
this map out if you like just fast you

00:03:06.599 --> 00:03:08.619 
this map out if you like just fast you
know<00:03:06.750> fast<00:03:07.230> hectic<00:03:07.769> fun

00:03:08.619 --> 00:03:08.629 
know fast hectic fun

00:03:08.629 --> 00:03:11.570 
know fast hectic fun
that's<00:03:09.629> not<00:03:10.080> overwhelming<00:03:10.860> it's<00:03:11.160> like<00:03:11.280> a<00:03:11.310> nice

00:03:11.570 --> 00:03:11.580 
that's not overwhelming it's like a nice

00:03:11.580 --> 00:03:14.000 
that's not overwhelming it's like a nice
little<00:03:11.610> neat<00:03:12.180> package<00:03:12.720> to<00:03:12.900> slaughter<00:03:13.260> map<00:03:13.620> all

00:03:14.000 --> 00:03:14.010 
little neat package to slaughter map all

00:03:14.010 --> 00:03:15.530 
little neat package to slaughter map all
you<00:03:14.190> like<00:03:14.310> a<00:03:14.340> baby<00:03:14.640> slaughter<00:03:15.060> map<00:03:15.360> that

00:03:15.530 --> 00:03:15.540 
you like a baby slaughter map that

00:03:15.540 --> 00:03:17.690 
you like a baby slaughter map that
hasn't<00:03:15.690> grown<00:03:16.019> up<00:03:16.079> yet<00:03:16.470> and<00:03:16.980> I<00:03:17.069> really<00:03:17.099> like<00:03:17.489> it

00:03:17.690 --> 00:03:17.700 
hasn't grown up yet and I really like it

00:03:17.700 --> 00:03:21.289 
hasn't grown up yet and I really like it
I<00:03:17.849> really<00:03:18.480> enjoy<00:03:18.750> this<00:03:18.930> map<00:03:19.819> to<00:03:20.819> Barrens<00:03:21.180> of

00:03:21.289 --> 00:03:21.299 
I really enjoy this map to Barrens of

00:03:21.299 --> 00:03:22.910 
I really enjoy this map to Barrens of
hell<00:03:21.480> really<00:03:21.930> aren't<00:03:22.140> that<00:03:22.230> overwhelming

00:03:22.910 --> 00:03:22.920 
hell really aren't that overwhelming

00:03:22.920 --> 00:03:24.430 
hell really aren't that overwhelming
here<00:03:23.129> they<00:03:23.400> usually<00:03:23.579> end<00:03:23.910> up<00:03:23.970> winning

00:03:24.430 --> 00:03:24.440 
here they usually end up winning

00:03:24.440 --> 00:03:28.339 
here they usually end up winning
everything<00:03:25.440> in<00:03:26.010> this<00:03:26.280> level<00:03:26.780> so<00:03:27.780> you<00:03:28.109> somehow

00:03:28.339 --> 00:03:28.349 
everything in this level so you somehow

00:03:28.349 --> 00:03:29.720 
everything in this level so you somehow
get<00:03:28.650> down<00:03:28.799> to<00:03:28.950> the<00:03:29.040> two<00:03:29.160> Barrens<00:03:29.489> of<00:03:29.579> hell

00:03:29.720 --> 00:03:29.730 
get down to the two Barrens of hell

00:03:29.730 --> 00:03:34.220 
get down to the two Barrens of hell
don't<00:03:29.879> be<00:03:30.060> surprised<00:03:31.129> they<00:03:32.129> are<00:03:33.230> they're

00:03:34.220 --> 00:03:34.230 
don't be surprised they are they're

00:03:34.230 --> 00:03:38.990 
don't be surprised they are they're
quite<00:03:34.769> the<00:03:34.799> little<00:03:35.099> nasties<00:03:35.900> but<00:03:37.370> the<00:03:38.370> barrels

00:03:38.990 --> 00:03:39.000 
quite the little nasties but the barrels

00:03:39.000 --> 00:03:40.580 
quite the little nasties but the barrels
the<00:03:39.390> barrels<00:03:39.720> in<00:03:39.840> the<00:03:39.870> middle<00:03:40.170> are<00:03:40.290> really

00:03:40.580 --> 00:03:40.590 
the barrels in the middle are really

00:03:40.590 --> 00:03:41.960 
the barrels in the middle are really
what<00:03:40.739> can<00:03:40.890> ruin<00:03:41.099> your<00:03:41.310> day<00:03:41.370> in<00:03:41.640> this<00:03:41.790> map

00:03:41.960 --> 00:03:41.970 
what can ruin your day in this map

00:03:41.970 --> 00:03:43.430 
what can ruin your day in this map
because<00:03:42.359> if<00:03:42.480> they<00:03:42.629> happen<00:03:42.930> to<00:03:42.959> get<00:03:43.109> blown<00:03:43.410> up

00:03:43.430 --> 00:03:43.440 
because if they happen to get blown up

00:03:43.440 --> 00:03:46.400 
because if they happen to get blown up
via<00:03:44.190> a<00:03:44.370> straw<00:03:44.790> a<00:03:44.879> strake<00:03:45.810> hacking<00:03:46.200> demon

00:03:46.400 --> 00:03:46.410 
via a straw a strake hacking demon

00:03:46.410 --> 00:03:49.190 
via a straw a strake hacking demon
lightning<00:03:47.340> ball<00:03:47.519> or<00:03:48.180> just<00:03:48.209> a<00:03:48.510> stratum<00:03:48.930> fire

00:03:49.190 --> 00:03:49.200 
lightning ball or just a stratum fire

00:03:49.200 --> 00:03:52.370 
lightning ball or just a stratum fire
ball<00:03:49.410> or<00:03:49.739> your<00:03:50.459> own<00:03:50.730> dumb<00:03:51.329> self<00:03:51.750> you<00:03:52.200> know<00:03:52.230> you

00:03:52.370 --> 00:03:52.380 
ball or your own dumb self you know you

00:03:52.380 --> 00:03:55.690 
ball or your own dumb self you know you
just<00:03:52.799> randomly<00:03:53.130> firing<00:03:53.609> Boom<00:03:53.880> Boom<00:03:54.030> Boom<00:03:54.060> Boom

00:03:55.690 --> 00:03:55.700 
just randomly firing Boom Boom Boom Boom

00:03:55.700 --> 00:03:58.009 
just randomly firing Boom Boom Boom Boom
gonna<00:03:56.700> hurt<00:03:56.910> you<00:03:57.090> can<00:03:57.209> actually<00:03:57.419> kill<00:03:57.810> you<00:03:57.989> I

00:03:58.009 --> 00:03:58.019 
gonna hurt you can actually kill you I

00:03:58.019 --> 00:03:59.479 
gonna hurt you can actually kill you I
think<00:03:58.200> I'm<00:03:58.560> not<00:03:58.709> a<00:03:58.769> hundred<00:03:58.950> percent<00:03:59.069> sure<00:03:59.340> on

00:03:59.479 --> 00:03:59.489 
think I'm not a hundred percent sure on

00:03:59.489 --> 00:04:01.309 
think I'm not a hundred percent sure on
that<00:03:59.669> but<00:03:59.819> if<00:04:00.090> not<00:04:00.269> you'll<00:04:00.900> wish<00:04:01.109> you<00:04:01.290> were

00:04:01.309 --> 00:04:01.319 
that but if not you'll wish you were

00:04:01.319 --> 00:04:03.039 
that but if not you'll wish you were
dead

00:04:03.039 --> 00:04:03.049 
dead

00:04:03.049 --> 00:04:05.449 
dead
not<00:04:04.049> a<00:04:04.079> whole<00:04:04.230> lot<00:04:04.260> say<00:04:04.650> just<00:04:04.980> press<00:04:05.220> the

00:04:05.449 --> 00:04:05.459 
not a whole lot say just press the

00:04:05.459 --> 00:04:07.970 
not a whole lot say just press the
switch<00:04:05.819> switch<00:04:06.389> exit<00:04:07.079> that's<00:04:07.530> all<00:04:07.650> you<00:04:07.739> got<00:04:07.889> to

00:04:07.970 --> 00:04:07.980 
switch switch exit that's all you got to

00:04:07.980 --> 00:04:11.900 
switch switch exit that's all you got to
do<00:04:08.480> or<00:04:09.480> switch<00:04:09.780> switch<00:04:10.049> switch<00:04:10.109> exit<00:04:10.769> yeah<00:04:10.980> had

00:04:11.900 --> 00:04:11.910 
do or switch switch switch exit yeah had

00:04:11.910 --> 00:04:13.580 
do or switch switch switch exit yeah had
to<00:04:12.030> think<00:04:12.239> how<00:04:12.599> many<00:04:12.660> switches<00:04:13.019> switches

00:04:13.580 --> 00:04:13.590 
to think how many switches switches

00:04:13.590 --> 00:04:16.129 
to think how many switches switches
which<00:04:14.040> switches<00:04:14.400> and<00:04:14.639> doors<00:04:14.790> people<00:04:15.139> switches

00:04:16.129 --> 00:04:16.139 
which switches and doors people switches

00:04:16.139 --> 00:04:16.640 
which switches and doors people switches
indoors

00:04:16.640 --> 00:04:16.650 
indoors

00:04:16.650 --> 00:04:17.990 
indoors
that's<00:04:16.769> how<00:04:16.979> doom<00:04:17.160> was<00:04:17.370> made<00:04:17.519> and<00:04:17.760> that's<00:04:17.820> how

00:04:17.990 --> 00:04:18.000 
that's how doom was made and that's how

00:04:18.000 --> 00:04:20.449 
that's how doom was made and that's how
team<00:04:18.180> got<00:04:18.389> really<00:04:18.750> popular<00:04:18.870> anyway<00:04:19.709> we're

00:04:20.449 --> 00:04:20.459 
team got really popular anyway we're

00:04:20.459 --> 00:04:22.129 
team got really popular anyway we're
moving<00:04:20.820> on<00:04:20.940> to<00:04:20.970> the<00:04:21.180> next<00:04:21.269> map<00:04:21.510> which<00:04:21.750> is<00:04:21.780> he'll

00:04:22.129 --> 00:04:22.139 
moving on to the next map which is he'll

00:04:22.139 --> 00:04:25.760 
moving on to the next map which is he'll
keep<00:04:22.380> which<00:04:22.680> is<00:04:22.889> not<00:04:23.220> the<00:04:24.000> he'll<00:04:24.300> keep<00:04:24.770> from

00:04:25.760 --> 00:04:25.770 
keep which is not the he'll keep from

00:04:25.770 --> 00:04:29.060 
keep which is not the he'll keep from
ultimate<00:04:26.610> doom<00:04:26.849> this<00:04:27.570> map<00:04:27.900> is<00:04:28.139> completely

00:04:29.060 --> 00:04:29.070 
ultimate doom this map is completely

00:04:29.070 --> 00:04:32.450 
ultimate doom this map is completely
different<00:04:29.460> so<00:04:30.560> I'll<00:04:31.560> see<00:04:31.860> you<00:04:31.889> there<00:04:32.280> I'm

00:04:32.450 --> 00:04:32.460 
different so I'll see you there I'm

00:04:32.460 --> 00:04:34.730 
different so I'll see you there I'm
ultimate<00:04:32.849> man<00:04:33.000> Toit<00:04:33.180> and<00:04:33.419> this<00:04:33.720> is<00:04:34.020> let's<00:04:34.560> play

00:04:34.730 --> 00:04:34.740 
ultimate man Toit and this is let's play

00:04:34.740 --> 00:04:36.950 
ultimate man Toit and this is let's play
playstation<00:04:35.130> do<00:04:35.729> so<00:04:36.360> next<00:04:36.510> time<00:04:36.690> take<00:04:36.900> care

00:04:36.950 --> 00:04:36.960 
playstation do so next time take care

00:04:36.960 --> 00:04:39.830 
playstation do so next time take care
and<00:04:37.349> have<00:04:37.650> fun

